 Gaussian 16, Revision C.01,
 Gaussian 16:  ES64L-G16RevC.01  3-Jul-2019

 ----------------------------------------------------------------------
 #P B3LYP/STO-3G NoSymm #P TD=(singlets,nstates=1) IOp(6/8=3) IOp(9/40=
 5)
 ----------------------------------------------------------------------

 -------
 TitleMe
 -------
 Symbolic Z-matrix:
 Charge =  0 Multiplicity = 1

                          Input orientation:
 ---------------------------------------------------------------------
 Center     Atomic      Atomic             Coordinates (Angstroms)
 Number     Number       Type             X           Y           Z
 ---------------------------------------------------------------------
      1          6           0        0.725998   -1.176224   -0.002850
      2          6           0        2.121158   -1.176224   -0.002850
      3          6           0        2.818696    0.031527   -0.002850
      4          6           0        2.121042    1.240036   -0.004049
      5          6           0        0.726217    1.239958   -0.004528
      6          6           0        0.028616    0.031752   -0.003532
      7          1           0        0.176239   -2.128541   -0.002400
      8          1           0        2.670666   -2.128737   -0.001535
      9          1           0        2.671242    2.192179   -0.004108
     10          1           0        0.176095    2.192239   -0.005481
     11          1           0       -1.070988    0.031935   -0.003712
     12          6           0        4.358695    0.031639   -0.001962
     13          1           0        4.715942    0.044055   -1.010486
     14          9           0        4.808241    1.126043    0.648184
     15         17           0        4.944999   -1.415433    0.810336
 ---------------------------------------------------------------------

 SCF Done:  E(RB3LYP) =  -820.602950038     A.U. after   13 cycles

 Excitation energies and oscillator strengths:

 Excited state symmetry could not be determined.
 Excited State   1:      Singlet-?Sym    6.3288 eV  195.90 nm  f=0.0005  <S**2>=0.000
      14 -> 39        -0.00003
      14 -> 40        -0.00007
      14 -> 41         0.00002
      14 -> 42        -0.00007
      14 -> 43        -0.00006
      14 -> 45         0.00003
      14 -> 46         0.00001
      14 -> 47         0.00004
      14 -> 48         0.00002
      14 -> 49         0.00006
      14 -> 51         0.00003
      14 -> 52         0.00002
      14 -> 53        -0.00009
      14 -> 54        -0.00005
      15 -> 38         0.00003
      15 -> 39        -0.00010
      15 -> 40         0.00003
      15 -> 41         0.00004
      15 -> 42        -0.00008
      15 -> 43        -0.00023
      15 -> 44         0.00011
      15 -> 45         0.00018
      15 -> 46         0.00010
      15 -> 47         0.00014
      15 -> 48         0.00013
      15 -> 49         0.00073
      15 -> 50         0.00002
      15 -> 51         0.00031
      15 -> 52         0.00003
      15 -> 53        -0.00063
      15 -> 54        -0.00020
      15 -> 55        -0.00004
      16 -> 38         0.00004
      16 -> 39         0.00002
      16 -> 40        -0.00025
      16 -> 41         0.00019
      16 -> 42        -0.00019
      16 -> 43        -0.00041
      16 -> 44         0.00016
      16 -> 45         0.00008
      16 -> 46        -0.00008
      16 -> 47         0.00008
      16 -> 48        -0.00019
      16 -> 49         0.00030
      16 -> 50        -0.00013
      16 -> 51         0.00017
      16 -> 52        -0.00015
      16 -> 53        -0.00022
      16 -> 54        -0.00019
      16 -> 55        -0.00003
      17 -> 38         0.00009
      17 -> 39        -0.00006
      17 -> 40        -0.00037
      17 -> 41         0.00017
      17 -> 42        -0.00009
      17 -> 43        -0.00071
      17 -> 44         0.00016
      17 -> 45        -0.00012
      17 -> 46         0.00051
      17 -> 47         0.00051
      17 -> 48         0.00104
      17 -> 49         0.00260
      17 -> 50         0.00040
      17 -> 51         0.00139
      17 -> 52         0.00039
      17 -> 53        -0.00078
      17 -> 54        -0.00030
      18 -> 38        -0.00001
      18 -> 39        -0.00005
      18 -> 40        -0.00022
      18 -> 41         0.00011
      18 -> 42        -0.00058
      18 -> 43         0.00011
      18 -> 44        -0.00011
      18 -> 45        -0.00013
      18 -> 46        -0.00066
      18 -> 47        -0.00009
      18 -> 48        -0.00230
      18 -> 49         0.00110
      18 -> 50        -0.00143
      18 -> 51         0.00037
      18 -> 52        -0.00038
      18 -> 53        -0.00029
      18 -> 54        -0.00015
      18 -> 55        -0.00026
      19 -> 38         0.00014
      19 -> 39        -0.00011
      19 -> 40        -0.00128
      19 -> 41         0.00042
      19 -> 42        -0.00061
      19 -> 43        -0.00066
      19 -> 44         0.00015
      19 -> 45         0.00179
      19 -> 46        -0.00002
      19 -> 47        -0.00015
      19 -> 48        -0.00013
      19 -> 49        -0.00157
      19 -> 50        -0.00019
      19 -> 51        -0.00116
      19 -> 52         0.00011
      19 -> 53        -0.00169
      19 -> 54        -0.00053
      19 -> 55         0.00004
      20 -> 38         0.00035
      20 -> 39         0.00002
      20 -> 40        -0.00020
      20 -> 41        -0.00011
      20 -> 42        -0.00089
      20 -> 43         0.00050
      20 -> 44        -0.00369
      20 -> 45        -0.00021
      20 -> 46         0.00034
      20 -> 47        -0.00038
      20 -> 49         0.00002
      20 -> 50        -0.00125
      20 -> 51        -0.00026
      20 -> 52         0.00411
      20 -> 53         0.00042
      20 -> 54         0.00019
      20 -> 55         0.00021
      21 -> 38         0.00029
      21 -> 39         0.00069
      21 -> 40        -0.00069
      21 -> 41         0.00028
      21 -> 42        -0.00074
      21 -> 43        -0.00108
      21 -> 44         0.00031
      21 -> 45         0.00391
      21 -> 46         0.00008
      21 -> 47        -0.00003
      21 -> 48         0.00009
      21 -> 49        -0.00046
      21 -> 50        -0.00001
      21 -> 51        -0.00088
      21 -> 52         0.00018
      21 -> 53        -0.00381
      21 -> 54        -0.00003
      21 -> 55        -0.00008
      22 -> 38         0.00005
      22 -> 39        -0.00186
      22 -> 40        -0.00010
      22 -> 41         0.00005
      22 -> 42        -0.00023
      22 -> 44        -0.00021
      22 -> 45         0.00091
      22 -> 47        -0.00004
      22 -> 48         0.00005
      22 -> 49         0.00021
      22 -> 50         0.00018
      22 -> 51         0.00050
      22 -> 52         0.00013
      22 -> 53        -0.00047
      22 -> 54        -0.00006
      22 -> 55        -0.00003
      23 -> 38         0.00050
      23 -> 39         0.00465
      23 -> 40        -0.00017
      23 -> 41        -0.00006
      23 -> 42        -0.00012
      23 -> 43         0.00010
      23 -> 45        -0.00063
      23 -> 46         0.00002
      23 -> 47         0.00007
      23 -> 49        -0.00026
      23 -> 50        -0.00007
      23 -> 51         0.00034
      23 -> 53         0.00079
      23 -> 54        -0.00185
      23 -> 55         0.00004
      24 -> 38        -0.00036
      24 -> 39        -0.00051
      24 -> 40        -0.00040
      24 -> 41         0.00044
      24 -> 42         0.00271
      24 -> 43        -0.00292
      24 -> 44        -0.00188
      24 -> 45         0.00032
      24 -> 46         0.00033
      24 -> 47         0.00012
      24 -> 48         0.00078
      24 -> 49        -0.00034
      24 -> 50         0.00025
      24 -> 51         0.00002
      24 -> 52         0.00142
      24 -> 54        -0.00211
      24 -> 55        -0.00006
      25 -> 38         0.00016
      25 -> 39        -0.00233
      25 -> 40        -0.00067
      25 -> 41         0.00002
      25 -> 42        -0.00207
      25 -> 43         0.00155
      25 -> 44         0.00139
      25 -> 45        -0.00019
      25 -> 46        -0.00004
      25 -> 47        -0.00014
      25 -> 48        -0.00045
      25 -> 49        -0.00070
      25 -> 50        -0.00031
      25 -> 51         0.00004
      25 -> 52        -0.00078
      25 -> 53         0.00073
      25 -> 54        -0.00300
      26 -> 38        -0.00031
      26 -> 39         0.00129
      26 -> 40        -0.00041
      26 -> 41         0.00022
      26 -> 42        -0.00004
      26 -> 43        -0.00031
      26 -> 44         0.00010
      26 -> 45        -0.00076
      26 -> 46        -0.00014
      26 -> 47         0.00009
      26 -> 48        -0.00003
      26 -> 49         0.00048
      26 -> 50        -0.00023
      26 -> 51         0.00054
      26 -> 52        -0.00007
      26 -> 53         0.00030
      26 -> 54         0.00162
      26 -> 55         0.00026
      27 -> 38         0.00018
      27 -> 39        -0.00037
      27 -> 40        -0.00016
      27 -> 41         0.00005
      27 -> 42         0.00049
      27 -> 43        -0.00052
      27 -> 44         0.00009
      27 -> 45         0.00019
      27 -> 46         0.00065
      27 -> 47         0.00029
      27 -> 48         0.00108
      27 -> 49        -0.00020
      27 -> 50         0.00247
      27 -> 51        -0.00007
      27 -> 52         0.00019
      27 -> 53        -0.00019
      27 -> 54        -0.00021
      27 -> 55        -0.00057
      28 -> 38        -0.00076
      28 -> 39        -0.00052
      28 -> 40         0.00050
      28 -> 41        -0.00018
      28 -> 42         0.00331
      28 -> 43        -0.00314
      28 -> 44        -0.00149
      28 -> 45         0.00036
      28 -> 46         0.00002
      28 -> 47         0.00015
      28 -> 48         0.00043
      28 -> 49         0.00007
      28 -> 50         0.00013
      28 -> 51         0.00006
      28 -> 52         0.00013
      28 -> 53        -0.00028
      28 -> 54        -0.00009
      28 -> 55         0.00011
      29 -> 38         0.00228
      29 -> 39         0.00451
      29 -> 40         0.00044
      29 -> 41        -0.00002
      29 -> 42        -0.00005
      29 -> 43        -0.00002
      29 -> 44        -0.00006
      29 -> 45        -0.00025
      29 -> 47        -0.00007
      29 -> 48        -0.00003
      29 -> 49        -0.00002
      29 -> 50        -0.00002
      29 -> 51         0.00003
      29 -> 52        -0.00004
      29 -> 53        -0.00002
      29 -> 54         0.00016
      29 -> 55         0.00003
      30 -> 38        -0.00011
      30 -> 39         0.00099
      30 -> 40         0.00015
      30 -> 41         0.00013
      30 -> 42         0.00020
      30 -> 43         0.00042
      30 -> 44        -0.00050
      30 -> 45        -0.00281
      30 -> 46         0.00004
      30 -> 47         0.00007
      30 -> 48        -0.00009
      30 -> 49         0.00012
      30 -> 50        -0.00019
      30 -> 51         0.00018
      30 -> 52         0.00010
      30 -> 53        -0.00011
      30 -> 54         0.00126
      30 -> 55         0.00016
      31 -> 38         0.00018
      31 -> 39         0.00026
      31 -> 40         0.00011
      31 -> 41        -0.00035
      31 -> 42        -0.00033
      31 -> 43         0.00007
      31 -> 44        -0.00174
      31 -> 45         0.00009
      31 -> 46        -0.00040
      31 -> 47        -0.00028
      31 -> 48        -0.00008
      31 -> 49        -0.00017
      31 -> 50        -0.00005
      31 -> 51         0.00005
      31 -> 52        -0.00246
      31 -> 53         0.00035
      31 -> 54         0.00034
      31 -> 55         0.00076
      32 -> 38        -0.00115
      32 -> 39        -0.02459
      32 -> 40        -0.00139
      32 -> 41         0.00044
      32 -> 42         0.00021
      32 -> 43        -0.00030
      32 -> 44         0.00009
      32 -> 45        -0.00048
      32 -> 46         0.00004
      32 -> 47         0.00017
      32 -> 48        -0.00005
      32 -> 49         0.00041
      32 -> 50        -0.00026
      32 -> 51         0.00007
      32 -> 52        -0.00031
      32 -> 53        -0.00030
      32 -> 54         0.00010
      32 -> 55         0.00014
      33 -> 38         0.01408
      33 -> 39        -0.01835
      33 -> 40         0.00204
      33 -> 41         0.00158
      33 -> 42         0.00012
      33 -> 43        -0.00091
      33 -> 44         0.00009
      33 -> 46        -0.00001
      33 -> 47        -0.00032
      33 -> 48        -0.00013
      33 -> 49         0.00024
      33 -> 50        -0.00005
      33 -> 51         0.00003
      33 -> 52        -0.00038
      33 -> 53        -0.00009
      33 -> 54         0.00011
      33 -> 55         0.00001
      34 -> 38         0.01326
      34 -> 39         0.02719
      34 -> 40         0.00210
      34 -> 41         0.00009
      34 -> 42         0.00019
      34 -> 43        -0.00025
      34 -> 44        -0.00007
      34 -> 45         0.00016
      34 -> 46        -0.00004
      34 -> 47        -0.00018
      34 -> 48        -0.00018
      34 -> 49         0.00007
      34 -> 50        -0.00011
      34 -> 51         0.00001
      34 -> 52        -0.00060
      34 -> 53         0.00010
      34 -> 54         0.00015
      34 -> 55         0.00007
      35 -> 38         0.00680
      35 -> 39        -0.03603
      35 -> 40        -0.00221
      35 -> 41         0.00066
      35 -> 42        -0.00002
      35 -> 43        -0.00038
      35 -> 44         0.00026
      35 -> 45        -0.00093
      35 -> 46         0.00016
      35 -> 47         0.00025
      35 -> 48         0.00006
      35 -> 49         0.00049
      35 -> 50        -0.00038
      35 -> 51         0.00014
      35 -> 52         0.00003
      35 -> 53        -0.00075
      35 -> 54        -0.00039
      35 -> 55         0.00016
      36 -> 38         0.48678
      36 -> 39         0.14387
      36 -> 40         0.01917
      36 -> 41         0.00462
      36 -> 42        -0.00262
      36 -> 43        -0.00245
      36 -> 44         0.00031
      36 -> 45        -0.00031
      36 -> 46         0.00041
      36 -> 47        -0.00190
      36 -> 48         0.00008
      36 -> 49         0.00006
      36 -> 50         0.00006
      36 -> 51         0.00005
      36 -> 52         0.00014
      36 -> 53        -0.00016
      36 -> 54        -0.00011
      37 -> 38        -0.15870
      37 -> 39         0.46187
      37 -> 40        -0.00278
      37 -> 41        -0.00342
      37 -> 42         0.00073
      37 -> 43         0.00036
      37 -> 44         0.00002
      37 -> 46        -0.00006
      37 -> 47         0.00060
      37 -> 48         0.00001
      37 -> 49         0.00022
      37 -> 50        -0.00011
      37 -> 51         0.00007
      37 -> 52        -0.00004
      37 -> 53        -0.00021
      37 -> 54        -0.00008
      37 -> 55         0.00003
      14 <- 38         0.00002
      14 <- 40        -0.00005
      14 <- 41         0.00002
      14 <- 42        -0.00005
      14 <- 43        -0.00005
      14 <- 45         0.00002
      14 <- 46         0.00001
      14 <- 47         0.00003
      14 <- 48         0.00001
      14 <- 49         0.00004
      14 <- 51         0.00002
      14 <- 52         0.00002
      14 <- 53        -0.00006
      14 <- 54        -0.00004
      15 <- 39        -0.00002
      15 <- 40         0.00002
      15 <- 41         0.00001
      15 <- 42        -0.00005
      15 <- 43        -0.00014
      15 <- 44         0.00007
      15 <- 45         0.00011
      15 <- 46         0.00007
      15 <- 47         0.00009
      15 <- 48         0.00010
      15 <- 49         0.00047
      15 <- 50         0.00002
      15 <- 51         0.00020
      15 <- 52         0.00002
      15 <- 53        -0.00043
      15 <- 54        -0.00014
      15 <- 55        -0.00003
      16 <- 39         0.00003
      16 <- 40        -0.00017
      16 <- 41         0.00010
      16 <- 42        -0.00013
      16 <- 43        -0.00025
      16 <- 44         0.00010
      16 <- 45         0.00005
      16 <- 46        -0.00005
      16 <- 47         0.00005
      16 <- 48        -0.00012
      16 <- 49         0.00015
      16 <- 50        -0.00008
      16 <- 51         0.00009
      16 <- 52        -0.00010
      16 <- 53        -0.00015
      16 <- 54        -0.00013
      16 <- 55        -0.00002
      17 <- 38         0.00004
      17 <- 39        -0.00003
      17 <- 40        -0.00015
      17 <- 41         0.00008
      17 <- 42        -0.00004
      17 <- 43        -0.00039
      17 <- 44         0.00008
      17 <- 45        -0.00006
      17 <- 46         0.00028
      17 <- 47         0.00029
      17 <- 48         0.00057
      17 <- 49         0.00147
      17 <- 50         0.00022
      17 <- 51         0.00081
      17 <- 52         0.00026
      17 <- 53        -0.00049
      17 <- 54        -0.00021
      18 <- 38         0.00001
      18 <- 39        -0.00002
      18 <- 40        -0.00011
      18 <- 41         0.00007
      18 <- 42        -0.00030
      18 <- 43         0.00009
      18 <- 44        -0.00004
      18 <- 45        -0.00006
      18 <- 46        -0.00028
      18 <- 47        -0.00004
      18 <- 48        -0.00125
      18 <- 49         0.00061
      18 <- 50        -0.00079
      18 <- 51         0.00021
      18 <- 52        -0.00025
      18 <- 53        -0.00019
      18 <- 54        -0.00010
      18 <- 55        -0.00019
      19 <- 38         0.00011
      19 <- 39        -0.00011
      19 <- 40        -0.00070
      19 <- 41         0.00024
      19 <- 42        -0.00038
      19 <- 43        -0.00043
      19 <- 44         0.00010
      19 <- 45         0.00107
      19 <- 47        -0.00008
      19 <- 48        -0.00006
      19 <- 49        -0.00089
      19 <- 50        -0.00013
      19 <- 51        -0.00071
      19 <- 52         0.00008
      19 <- 53        -0.00116
      19 <- 54        -0.00036
      19 <- 55         0.00003
      20 <- 38         0.00005
      20 <- 39         0.00007
      20 <- 40        -0.00013
      20 <- 42        -0.00048
      20 <- 43         0.00030
      20 <- 44        -0.00215
      20 <- 45        -0.00012
      20 <- 46         0.00021
      20 <- 47        -0.00022
      20 <- 48         0.00001
      20 <- 50        -0.00081
      20 <- 51        -0.00017
      20 <- 52         0.00271
      20 <- 53         0.00028
      20 <- 54         0.00013
      20 <- 55         0.00014
      21 <- 38         0.00010
      21 <- 39         0.00023
      21 <- 40        -0.00032
      21 <- 41         0.00018
      21 <- 42        -0.00039
      21 <- 43        -0.00059
      21 <- 44         0.00017
      21 <- 45         0.00228
      21 <- 46         0.00005
      21 <- 47        -0.00002
      21 <- 48         0.00006
      21 <- 49        -0.00033
      21 <- 51        -0.00059
      21 <- 52         0.00012
      21 <- 53        -0.00249
      21 <- 54        -0.00002
      21 <- 55        -0.00005
      22 <- 38        -0.00005
      22 <- 39        -0.00024
      22 <- 40        -0.00005
      22 <- 41         0.00005
      22 <- 42        -0.00013
      22 <- 44        -0.00012
      22 <- 45         0.00052
      22 <- 47        -0.00003
      22 <- 48         0.00003
      22 <- 49         0.00011
      22 <- 50         0.00012
      22 <- 51         0.00032
      22 <- 52         0.00007
      22 <- 53        -0.00028
      22 <- 54        -0.00004
      22 <- 55        -0.00002
      23 <- 38         0.00022
      23 <- 39         0.00084
      23 <- 40        -0.00013
      23 <- 41        -0.00008
      23 <- 42        -0.00006
      23 <- 43         0.00005
      23 <- 45        -0.00036
      23 <- 46         0.00002
      23 <- 47         0.00004
      23 <- 49        -0.00012
      23 <- 50        -0.00004
      23 <- 51         0.00023
      23 <- 52         0.00001
      23 <- 53         0.00051
      23 <- 54        -0.00119
      23 <- 55         0.00002
      24 <- 38        -0.00001
      24 <- 39        -0.00016
      24 <- 40        -0.00014
      24 <- 41         0.00007
      24 <- 42         0.00130
      24 <- 43        -0.00148
      24 <- 44        -0.00099
      24 <- 45         0.00018
      24 <- 46         0.00017
      24 <- 47         0.00004
      24 <- 48         0.00042
      24 <- 49        -0.00018
      24 <- 50         0.00013
      24 <- 51         0.00001
      24 <- 52         0.00087
      24 <- 53        -0.00002

 Total Energy, E(TD-HF/TD-DFT) =  -820.370369357

 Alpha  occ. eigenvalues -- -100.44360 -24.42710 -10.15563 -10.03084 -10.02074
 Alpha  occ. eigenvalues --  -10.01843 -10.01742 -10.01686 -10.01622  -9.24383
 Alpha  occ. eigenvalues --   -7.02377  -7.00818  -7.00766  -1.15331  -0.83306
 Alpha  occ. eigenvalues --   -0.80040  -0.72003  -0.71155  -0.62519  -0.57340
 Alpha  occ. eigenvalues --   -0.55377  -0.49570  -0.45928  -0.42798  -0.42593
 Alpha  occ. eigenvalues --   -0.40234  -0.38948  -0.38528  -0.32679  -0.32067
 Alpha  occ. eigenvalues --   -0.30880  -0.25396  -0.25074  -0.23271  -0.21957
 Alpha  occ. eigenvalues --   -0.20702  -0.20424
 Alpha virt. eigenvalues --    0.07271   0.08020   0.16166   0.24057   0.30863
 Alpha virt. eigenvalues --    0.31944   0.36393   0.38665   0.42941   0.43786
 Alpha virt. eigenvalues --    0.45260   0.46627   0.56498   0.57819   0.59226

 Mulliken charges:
               1
     1  C   -0.075553
     2  C   -0.077027
     3  C   -0.010019
     4  C   -0.079939
     5  C   -0.075753
     6  C   -0.075605
     7  H    0.083993
     8  H    0.095499
     9  H    0.084323
    10  H    0.083572
    11  H    0.083034
    12  C    0.064419
    13  H    0.113344
    14  F   -0.070492
    15  Cl  -0.143796
 Sum of Mulliken charges =  -0.00000

 Dipole moment (field-independent basis, Debye):
    X=             -1.3113    Y=              1.0254    Z=             -1.3063  Tot=              2.1159
 Quadrupole moment (field-independent basis, Debye-Ang):
   XX=            -60.6194   YY=            -52.7390   ZZ=            -55.8858
   XY=              5.3199   XZ=             -6.5287   YZ=              0.8442

 Normal termination of Gaussian 16 at Sat Dec  7 16:56:08 2024.
